{"import_type":"post","site_url":"https:\/\/tablape.com","import_sub_type":"","fields":{"is_exported":1,"wpie_item_id":"{id[1]}","wpie_item_title":"{title[1]}","wpie_item_content":"{content[1]}","wpie_item_excerpt":"{excerpt[1]}","wpie_item_date":"{date[1]}","wpie_item_post_type":"{posttype[1]}","wpie_item_permalink":"{permalink[1]}","wpie_item_cf":{"65aea6dc380b0":{"name":"_1st_ionisation_energy","value":"{_1st_ionisation_energy[1]}"},"65aea6dc380ba":{"name":"_2nd_ionisation_energy","value":"{_2nd_ionisation_energy[1]}"},"65aea6dc380c1":{"name":"_3rd_ionisation_energy","value":"{_3rd_ionisation_energy[1]}"},"65aea6dc380cd":{"name":"_4th_ionisation_energy","value":"{_4th_ionisation_energy[1]}"},"65aea6dc380d4":{"name":"_5th_ionisation_energy","value":"{_5th_ionisation_energy[1]}"},"65aea6dc380da":{"name":"_6th_ionisation_energy","value":"{_6th_ionisation_energy[1]}"},"65aea6dc380e1":{"name":"_7th_ionisation_energy","value":"{_7th_ionisation_energy[1]}"},"65aea6dc380e7":{"name":"_8th_ionisation_energy","value":"{_8th_ionisation_energy[1]}"},"65aea6dc380ee":{"name":"_allotropes","value":"{_allotropes[1]}"},"65aea6dc380f5":{"name":"_allytropes","value":"{_allytropes[1]}"},"65aea6dc380fb":{"name":"_appearance","value":"{_appearance[1]}"},"65aea6dc38103":{"name":"_atomic_number","value":"{_atomic_number[1]}"},"65aea6dc3810a":{"name":"_atomic_radius_non_bonded","value":"{_atomic_radius_non_bonded[1]}"},"65aea6dc38111":{"name":"_audio","value":"{_audio[1]}"},"65aea6dc38117":{"name":"_block","value":"{_block[1]}"},"65aea6dc3811e":{"name":"_boiling_point","value":"{_boiling_point[1]}"},"65aea6dc38125":{"name":"_boiling_point_deg","value":"{_boiling_point_deg[1]}"},"65aea6dc3812c":{"name":"_boiling_point_k","value":"{_boiling_point_k[1]}"},"65aea6dc38133":{"name":"_bulk_modulus","value":"{_bulk_modulus[1]}"},"65aea6dc3813a":{"name":"_cas_number","value":"{_cas_number[1]}"},"65aea6dc38140":{"name":"_chemical_symbol","value":"{_chemical_symbol[1]}"},"65aea6dc38147":{"name":"_chemspiderid","value":"{_chemspiderid[1]}"},"65aea6dc3814e":{"name":"_column","value":"{_column[1]}"},"65aea6dc38155":{"name":"_common_axidation_states","value":"{_common_axidation_states[1]}"},"65aea6dc3815b":{"name":"_covalent_radius","value":"{_covalent_radius[1]}"},"65aea6dc38162":{"name":"_crustal_abundance_ppm","value":"{_crustal_abundance_ppm[1]}"},"65aea6dc38169":{"name":"_crystal_abundance_ppm","value":"{_crystal_abundance_ppm[1]}"},"65aea6dc38170":{"name":"_density","value":"{_density[1]}"},"65aea6dc38177":{"name":"_discovered_by","value":"{_discovered_by[1]}"},"65aea6dc3817e":{"name":"_discovery_date","value":"{_discovery_date[1]}"},"65aea6dc38185":{"name":"_discovery_date_label","value":"{_discovery_date_label[1]}"},"65aea6dc3818b":{"name":"_electron_affinity","value":"{_electron_affinity[1]}"},"65aea6dc38192":{"name":"_electron_configuration","value":"{_electron_configuration[1]}"},"65aea6dc38199":{"name":"_electronegativity","value":"{_electronegativity[1]}"},"65aea6dc381a0":{"name":"_elementor_css","value":"{_elementor_css[1]}"},"65aea6dc381a6":{"name":"_elementor_template_type","value":"{_elementor_template_type[1]}"},"65aea6dc381ad":{"name":"_elementor_version","value":"{_elementor_version[1]}"},"65aea6dc381b4":{"name":"_encloseme","value":"{_encloseme[1]}"},"65aea6dc381ba":{"name":"_energy_levels","value":"{_energy_levels[1]}"},"65aea6dc381c1":{"name":"_first_ionization_energy","value":"{_first_ionization_energy[1]}"},"65aea6dc381c8":{"name":"_games","value":"{_games[1]}"},"65aea6dc381ce":{"name":"_group","value":"{_group[1]}"},"65aea6dc381d5":{"name":"_group_highlight","value":"{_group_highlight[1]}"},"65aea6dc381dc":{"name":"_history","value":"{_history[1]}"},"65aea6dc381e3":{"name":"_image_explanation","value":"{_image_explanation[1]}"},"65aea6dc381ea":{"name":"_ionisation_energies","value":"{_ionisation_energies[1]}"},"65aea6dc381f0":{"name":"_key_isotopes","value":"{_key_isotopes[1]}"},"65aea6dc381f7":{"name":"_melting_point","value":"{_melting_point[1]}"},"65aea6dc381fe":{"name":"_melting_point_deg","value":"{_melting_point_deg[1]}"},"65aea6dc38204":{"name":"_melting_point_k","value":"{_melting_point_k[1]}"},"65aea6dc3820b":{"name":"_origin_of_the_name","value":"{_origin_of_the_name[1]}"},"65aea6dc38212":{"name":"_osi_atomic_mass","value":"{_osi_atomic_mass[1]}"},"65aea6dc38218":{"name":"_osi_half_life","value":"{_osi_half_life[1]}"},"65aea6dc3821f":{"name":"_osi_isotope","value":"{_osi_isotope[1]}"},"65aea6dc38225":{"name":"_osi_mode_of_decay","value":"{_osi_mode_of_decay[1]}"},"65aea6dc3822c":{"name":"_osi_natural_abundance","value":"{_osi_natural_abundance[1]}"},"65aea6dc38234":{"name":"_oxidation_states_and_isotopes_content","value":"{_oxidation_states_and_isotopes_content[1]}"},"65aea6dc3823a":{"name":"_period","value":"{_period[1]}"},"65aea6dc38241":{"name":"_pingme","value":"{_pingme[1]}"},"65aea6dc38248":{"name":"_podcast","value":"{_podcast[1]}"},"65aea6dc3824f":{"name":"_political_stability_of_top_producer","value":"{_political_stability_of_top_producer[1]}"},"65aea6dc38257":{"name":"_political_stability_of_top_reserve_holder","value":"{_political_stability_of_top_reserve_holder[1]}"},"65aea6dc3825e":{"name":"_pressure_1000_k","value":"{_pressure_1000_k[1]}"},"65aea6dc38264":{"name":"_pressure_1200_k","value":"{_pressure_1200_k[1]}"},"65aea6dc3826b":{"name":"_pressure_1400_k","value":"{_pressure_1400_k[1]}"},"65aea6dc38276":{"name":"_pressure_1600_k","value":"{_pressure_1600_k[1]}"},"65aea6dc3827c":{"name":"_pressure_1800_k","value":"{_pressure_1800_k[1]}"},"65aea6dc38283":{"name":"_pressure_2000_k","value":"{_pressure_2000_k[1]}"},"65aea6dc38289":{"name":"_pressure_2200_k","value":"{_pressure_2200_k[1]}"},"65aea6dc38293":{"name":"_pressure_2400_k","value":"{_pressure_2400_k[1]}"},"65aea6dc3829a":{"name":"_pressure_400k","value":"{_pressure_400k[1]}"},"65aea6dc382a0":{"name":"_pressure_600k","value":"{_pressure_600k[1]}"},"65aea6dc382a7":{"name":"_pressure_800k","value":"{_pressure_800k[1]}"},"65aea6dc382ae":{"name":"_production_concentration","value":"{_production_concentration[1]}"},"65aea6dc382b5":{"name":"_recycling_rate","value":"{_recycling_rate[1]}"},"65aea6dc382bb":{"name":"_references","value":"{_references[1]}"},"65aea6dc382c2":{"name":"_relative_atomic_mass","value":"{_relative_atomic_mass[1]}"},"65aea6dc382c9":{"name":"_relative_supply_risk","value":"{_relative_supply_risk[1]}"},"65aea6dc382cf":{"name":"_reserve_distribution","value":"{_reserve_distribution[1]}"},"65aea6dc382d6":{"name":"_sequence","value":"{_sequence[1]}"},"65aea6dc382dd":{"name":"_shear_modulus","value":"{_shear_modulus[1]}"},"65aea6dc382e3":{"name":"_specific_heat_capacity","value":"{_specific_heat_capacity[1]}"},"65aea6dc382ea":{"name":"_state_at_20_degrees","value":"{_state_at_20_degrees[1]}"},"65aea6dc382f1":{"name":"_subtitutability","value":"{_subtitutability[1]}"},"65aea6dc382f8":{"name":"_thumbnail_id","value":"{_thumbnail_id[1]}"},"65aea6dc382fe":{"name":"_top_3_producers","value":"{_top_3_producers[1]}"},"65aea6dc38305":{"name":"_top_3_reserve_holders","value":"{_top_3_reserve_holders[1]}"},"65aea6dc3830c":{"name":"_uses","value":"{_uses[1]}"},"65aea6dc38312":{"name":"_video","value":"{_video[1]}"},"65aea6dc38319":{"name":"_video_description","value":"{_video_description[1]}"},"65aea6dc38320":{"name":"_video_description_content","value":"{_video_description_content[1]}"},"65aea6dc38327":{"name":"_weight","value":"{_weight[1]}"},"65aea6dc3832d":{"name":"_wp_old_slug","value":"{_wp_old_slug[1]}"},"65aea6dc38347":{"name":"_wp_page_template","value":"{_wp_page_template[1]}"},"65aea6dc38359":{"name":"_youngs_modulus","value":"{_youngs_modulus[1]}"},"65aea6dc38360":{"name":"1st_ionisation_energy","value":"{1st_ionisation_energy[1]}"},"65aea6dc38367":{"name":"2nd_ionisation_energy","value":"{2nd_ionisation_energy[1]}"},"65aea6dc3836e":{"name":"3rd_ionisation_energy","value":"{3rd_ionisation_energy[1]}"},"65aea6dc38374":{"name":"4th_ionisation_energy","value":"{4th_ionisation_energy[1]}"},"65aea6dc3837b":{"name":"5th_ionisation_energy","value":"{5th_ionisation_energy[1]}"},"65aea6dc38381":{"name":"6th_ionisation_energy","value":"{6th_ionisation_energy[1]}"},"65aea6dc38388":{"name":"7th_ionisation_energy","value":"{7th_ionisation_energy[1]}"},"65aea6dc3838e":{"name":"8th_ionisation_energy","value":"{8th_ionisation_energy[1]}"},"65aea6dc38395":{"name":"allotropes","value":"{allotropes[1]}"},"65aea6dc383a2":{"name":"allytropes","value":"{allytropes[1]}"},"65aea6dc383a9":{"name":"appearance","value":"{appearance[1]}"},"65aea6dc383af":{"name":"atomic_number","value":"{atomic_number[1]}"},"65aea6dc383b6":{"name":"atomic_radius_non_bonded","value":"{atomic_radius_non_bonded[1]}"},"65aea6dc383bd":{"name":"audio","value":"{audio[1]}"},"65aea6dc383c3":{"name":"block","value":"{block[1]}"},"65aea6dc383ca":{"name":"boiling_point","value":"{boiling_point[1]}"},"65aea6dc383d2":{"name":"boiling_point_deg","value":"{boiling_point_deg[1]}"},"65aea6dc383d8":{"name":"boiling_point_k","value":"{boiling_point_k[1]}"},"65aea6dc383df":{"name":"bulk_modulus","value":"{bulk_modulus[1]}"},"65aea6dc383e5":{"name":"cas_number","value":"{cas_number[1]}"},"65aea6dc383ec":{"name":"chemical_symbol","value":"{chemical_symbol[1]}"},"65aea6dc383f3":{"name":"chemspiderid","value":"{chemspiderid[1]}"},"65aea6dc383f9":{"name":"column","value":"{column[1]}"},"65aea6dc38400":{"name":"common_axidation_states","value":"{common_axidation_states[1]}"},"65aea6dc38407":{"name":"covalent_radius","value":"{covalent_radius[1]}"},"65aea6dc3840d":{"name":"crustal_abundance_ppm","value":"{crustal_abundance_ppm[1]}"},"65aea6dc38414":{"name":"crystal_abundance_ppm","value":"{crystal_abundance_ppm[1]}"},"65aea6dc3841a":{"name":"density","value":"{density[1]}"},"65aea6dc38421":{"name":"discovered_by","value":"{discovered_by[1]}"},"65aea6dc38428":{"name":"discovery_date","value":"{discovery_date[1]}"},"65aea6dc3842e":{"name":"discovery_date_label","value":"{discovery_date_label[1]}"},"65aea6dc38435":{"name":"electron_affinity","value":"{electron_affinity[1]}"},"65aea6dc3843c":{"name":"electron_configuration","value":"{electron_configuration[1]}"},"65aea6dc38443":{"name":"electronegativity","value":"{electronegativity[1]}"},"65aea6dc3844a":{"name":"energy_levels","value":"{energy_levels[1]}"},"65aea6dc38451":{"name":"first_ionization_energy","value":"{first_ionization_energy[1]}"},"65aea6dc38458":{"name":"games","value":"{games[1]}"},"65aea6dc3845e":{"name":"group","value":"{group[1]}"},"65aea6dc38465":{"name":"group_highlight","value":"{group_highlight[1]}"},"65aea6dc3846b":{"name":"history","value":"{history[1]}"},"65aea6dc38472":{"name":"image_explanation","value":"{image_explanation[1]}"},"65aea6dc38478":{"name":"ionisation_energies","value":"{ionisation_energies[1]}"},"65aea6dc3847f":{"name":"key_isotopes","value":"{key_isotopes[1]}"},"65aea6dc38485":{"name":"melting_point","value":"{melting_point[1]}"},"65aea6dc3848c":{"name":"melting_point_deg","value":"{melting_point_deg[1]}"},"65aea6dc38493":{"name":"melting_point_k","value":"{melting_point_k[1]}"},"65aea6dc38499":{"name":"origin_of_the_name","value":"{origin_of_the_name[1]}"},"65aea6dc384a0":{"name":"osi_atomic_mass","value":"{osi_atomic_mass[1]}"},"65aea6dc384a6":{"name":"osi_half_life","value":"{osi_half_life[1]}"},"65aea6dc384ad":{"name":"osi_isotope","value":"{osi_isotope[1]}"},"65aea6dc384b4":{"name":"osi_mode_of_decay","value":"{osi_mode_of_decay[1]}"},"65aea6dc384ba":{"name":"osi_natural_abundance","value":"{osi_natural_abundance[1]}"},"65aea6dc384c2":{"name":"oxidation_states_and_isotopes_content","value":"{oxidation_states_and_isotopes_content[1]}"},"65aea6dc384c8":{"name":"period","value":"{period[1]}"},"65aea6dc384cf":{"name":"podcast","value":"{podcast[1]}"},"65aea6dc384d6":{"name":"political_stability_of_top_producer","value":"{political_stability_of_top_producer[1]}"},"65aea6dc384e1":{"name":"political_stability_of_top_reserve_holder","value":"{political_stability_of_top_reserve_holder[1]}"},"65aea6dc384e7":{"name":"pressure_1000_k","value":"{pressure_1000_k[1]}"},"65aea6dc384ee":{"name":"pressure_1200_k","value":"{pressure_1200_k[1]}"},"65aea6dc384f8":{"name":"pressure_1400_k","value":"{pressure_1400_k[1]}"},"65aea6dc38500":{"name":"pressure_1600_k","value":"{pressure_1600_k[1]}"},"65aea6dc38506":{"name":"pressure_1800_k","value":"{pressure_1800_k[1]}"},"65aea6dc3850d":{"name":"pressure_2000_k","value":"{pressure_2000_k[1]}"},"65aea6dc38513":{"name":"pressure_2200_k","value":"{pressure_2200_k[1]}"},"65aea6dc3851a":{"name":"pressure_2400_k","value":"{pressure_2400_k[1]}"},"65aea6dc38520":{"name":"pressure_400k","value":"{pressure_400k[1]}"},"65aea6dc38527":{"name":"pressure_600k","value":"{pressure_600k[1]}"},"65aea6dc3852d":{"name":"pressure_800k","value":"{pressure_800k[1]}"},"65aea6dc38534":{"name":"production_concentration","value":"{production_concentration[1]}"},"65aea6dc3853b":{"name":"rank_math_analytic_object_id","value":"{rank_math_analytic_object_id[1]}"},"65aea6dc38542":{"name":"rank_math_contentai_score","value":"{rank_math_contentai_score[1]}"},"65aea6dc38549":{"name":"rank_math_description","value":"{rank_math_description[1]}"},"65aea6dc3854f":{"name":"rank_math_focus_keyword","value":"{rank_math_focus_keyword[1]}"},"65aea6dc38556":{"name":"rank_math_internal_links_processed","value":"{rank_math_internal_links_processed[1]}"},"65aea6dc3855e":{"name":"rank_math_primary_category","value":"{rank_math_primary_category[1]}"},"65aea6dc38565":{"name":"rank_math_primary_element-block","value":"{rank_math_primary_elementblock[1]}"},"65aea6dc3856d":{"name":"rank_math_primary_element-classification","value":"{rank_math_primary_elementclassification[1]}"},"65aea6dc38574":{"name":"rank_math_primary_element-form","value":"{rank_math_primary_elementform[1]}"},"65aea6dc3857b":{"name":"rank_math_primary_element-group","value":"{rank_math_primary_elementgroup[1]}"},"65aea6dc38582":{"name":"rank_math_primary_element-period","value":"{rank_math_primary_elementperiod[1]}"},"65aea6dc38589":{"name":"rank_math_primary_element-row","value":"{rank_math_primary_elementrow[1]}"},"65aea6dc38590":{"name":"rank_math_primary_element-type","value":"{rank_math_primary_elementtype[1]}"},"65aea6dc38597":{"name":"rank_math_seo_score","value":"{rank_math_seo_score[1]}"},"65aea6dc3859d":{"name":"recycling_rate","value":"{recycling_rate[1]}"},"65aea6dc385a4":{"name":"references","value":"{references[1]}"},"65aea6dc385aa":{"name":"relative_atomic_mass","value":"{relative_atomic_mass[1]}"},"65aea6dc385b1":{"name":"relative_supply_risk","value":"{relative_supply_risk[1]}"},"65aea6dc385b8":{"name":"reserve_distribution","value":"{reserve_distribution[1]}"},"65aea6dc385be":{"name":"sequence","value":"{sequence[1]}"},"65aea6dc385c5":{"name":"shear_modulus","value":"{shear_modulus[1]}"},"65aea6dc385cc":{"name":"specific_heat_capacity","value":"{specific_heat_capacity[1]}"},"65aea6dc385d3":{"name":"state_at_20_degrees","value":"{state_at_20_degrees[1]}"},"65aea6dc385da":{"name":"subtitutability","value":"{subtitutability[1]}"},"65aea6dc385e0":{"name":"top_3_producers","value":"{top_3_producers[1]}"},"65aea6dc385e7":{"name":"top_3_reserve_holders","value":"{top_3_reserve_holders[1]}"},"65aea6dc385ee":{"name":"uses","value":"{uses[1]}"},"65aea6dc385f4":{"name":"video","value":"{video[1]}"},"65aea6dc385fb":{"name":"video_description","value":"{video_description[1]}"},"65aea6dc38602":{"name":"video_description_content","value":"{video_description_content[1]}"},"65aea6dc38608":{"name":"weight","value":"{weight[1]}"},"65aea6dc3860f":{"name":"youngs_modulus","value":"{youngs_modulus[1]}"}},"wpie_item__yoast_wpseo_estimated-reading-time-minutes":"{_yoast_wpseo_estimatedreadingtimeminutes[1]}","wpie_item_set_taxonomy":{"category":1,"post_tag":1,"element-classification":1,"element-type":1,"element-group":1,"element-form":1,"element-period":1,"element-block":1,"element-row":1},"wpie_item_taxonomy":{"category":"{categories[1]}","post_tag":"{tags[1]}","element-classification":"{elementclassifications[1]}","element-type":"{elementtypes[1]}","element-group":"{elementgroups[1]}","element-form":"{elementforms[1]}","element-period":"{elementperiods[1]}","element-block":"{elementblocks[1]}","element-row":"{elementrows[1]}"},"wpie_item_taxonomy_hierarchical_delim":{"category":">","element-classification":">","element-type":">","element-group":">","element-form":">","element-period":">","element-block":">","element-row":">"},"wpie_item_image_url":"{imageurl[1]}","wpie_item_image_filename":"{imagesfilename[1]}","wpie_item_image_path":"{imagespath[1]}","wpie_item_image_id":"{imagesid[1]}","wpie_item_set_image_title":1,"wpie_item_image_title":"{imagestitle[1]}","wpie_item_set_image_caption":1,"wpie_item_image_caption":"{imagescaption[1]}","wpie_item_set_image_description":1,"wpie_item_image_description":"{imagesdescription[1]}","wpie_item_set_image_alt":1,"wpie_item_image_alt":"{imagesalttext[1]}","wpie_item_attachment_url":"{attachmenturl[1]}","wpie_item_attachment_filename":"{attachmentsfilename[1]}","wpie_item_attachment_path":"{attachmentspath[1]}","wpie_item_attachment_id":"{attachmentsid[1]}","wpie_item_attachment_title":"{attachmentstitle[1]}","wpie_item_attachment_caption":"{attachmentscaption[1]}","wpie_item_attachment_description":"{attachmentsdescription[1]}","wpie_item_attachment_alt":"{attachmentsalttext[1]}","wpie_item_status":"{status[1]}","wpie_item_author_id":"{authorid[1]}","wpie_item_author_username":"{authorusername[1]}","wpie_item_author":"{authoremail[1]}","wpie_item_author_email":"{authoremail[1]}","wpie_item_wpie_cf_first_name":"{authorfirstname[1]}","wpie_item_wpie_cf_last_name":"{authorlastname[1]}","wpie_item_slug":"{slug[1]}","wpie_item_format":"{format[1]}","wpie_item_post_password":"{postpassword[1]}","wpie_item_template":"{template[1]}","wpie_item_parent":"{parent[1]}","wpie_item_parent_id":"{parent[1]}","wpie_item_parent_slug":"{parentslug[1]}","wpie_item_order":"{order[1]}","wpie_item_comment_status":"{commentstatus[1]}","wpie_item_ping_status":"{pingstatus[1]}","wpie_item_post_modified":"{postmodifieddate[1]}"},"fileName":"Post-Export-2024-Jan-22-173312.csv"}